ITEM: TIMESTEP
0
ITEM: NUMBER OF ATOMS
2000
ITEM: BOX BOUNDS pp pp pp
-0.0504018 28.6036
-0.0504018 28.6036
-0.0504018 28.6036
ITEM: ATOMS id xu yu zu 
2 1.54108 1.32512 1.30727 
61 -0.0243355 2.69509 2.9046 
13 2.77117 2.67483 -0.0467973 
11 -0.0141774 2.61863 0.038063 
4 4.18174 1.41324 1.51789 
65 5.63463 2.97162 2.82576 
6 6.96099 1.44634 1.45811 
5 5.71742 0.0868277 -0.0389361 
8 9.96348 1.53235 1.43818 
67 8.58503 2.90559 2.95319 
57 8.78231 0.155798 2.84154 
7 8.47713 0.113533 -0.0245256 
10 12.7637 1.32624 1.41597 
69 11.4821 2.89467 2.82668 
19 11.4622 2.79807 -0.0175236 
1061 14.1428 2.75904 2.73247 
59 11.4989 -0.0341452 2.78892 
12 1.1649 4.22717 1.33847 
73 2.62707 5.79231 2.6186 
14 4.22756 4.40178 1.38089 
75 5.76553 5.63735 2.75416 
16 7.09106 4.31289 1.33375 
24 4.21149 7.03919 1.32682 
26 7.10589 7.10955 1.19869 
18 9.97503 4.17747 1.4233 
77 8.52203 5.93236 2.6493 
1071 14.2648 5.87512 2.63043 
20 12.9029 4.29252 1.45357 
79 11.3128 5.79031 2.75684 
22 1.23036 7.15462 1.29544 
32 1.38081 9.93313 1.28216 
83 2.81082 8.44536 2.83394 
34 4.2556 9.91572 1.48509 
85 5.57661 8.43735 2.9525 
36 6.93711 9.94064 1.43909 
28 10.0573 7.22979 1.34606 
38 9.99066 10.084 1.41037 
87 8.43848 8.53422 2.71713 
37 8.55075 8.54612 -0.0253067 
30 12.7348 7.1638 1.31764 
40 12.7785 10.0818 1.40663 
89 11.4722 8.61559 2.86418 
1081 14.2073 8.77001 2.79829 
1031 14.2526 8.72029 -0.0162923 
42 1.47049 12.9316 1.35778 
93 2.88882 11.366 2.75166 
551 -0.00231148 14.251 2.73532 
91 0.0481191 11.3318 2.74817 
41 -0.0189758 11.5106 0.0262656 
43 2.73111 11.5131 0.000932465 
44 4.50141 12.7909 1.35789 
95 5.63887 11.4311 2.76345 
46 7.10142 12.7908 1.38639 
48 9.89716 12.8851 1.32644 
97 8.48535 11.3386 2.96044 
557 8.61554 14.2547 2.85746 
47 8.44587 11.4007 0.0825425 
559 11.5031 14.2429 2.96232 
50 12.8018 12.9311 1.34918 
99 11.3158 11.2975 2.89722 
49 11.4197 11.4252 -0.00330272 
1551 14.2 14.231 2.82288 
52 1.46158 1.45459 4.26198 
113 2.87509 2.88105 5.69395 
102 1.51415 1.41658 7.07716 
101 -0.0260734 -0.010499 5.72018 
103 2.81302 -0.0138854 5.5852 
111 0.0506549 2.81633 5.62939 
54 4.36987 1.2657 4.14259 
115 5.66015 2.75097 5.66734 
104 4.42235 1.3642 7.05469 
56 7.1092 1.4957 4.27292 
58 10.208 1.49145 4.11488 
117 8.60143 3.05697 5.64624 
108 10.1433 1.41708 7.08494 
107 8.76859 0.151943 5.64268 
60 12.7368 1.47176 4.28229 
119 11.4397 3.04244 5.54884 
110 13.0431 1.36857 6.88348 
109 11.507 0.0318216 5.56801 
62 1.46945 4.22823 4.13752 
123 2.69463 5.54378 5.55293 
122 1.15058 7.07549 7.09354 
121 0.019171 5.70706 5.62642 
64 4.16314 4.27475 4.04191 
125 5.49326 5.23102 5.69623 
74 4.41193 6.9917 4.33341 
124 3.86651 6.97798 6.98531 
126 6.37839 7.10537 6.37702 
66 7.34778 4.4751 4.11654 
118 10.1727 4.36862 7.0653 
68 10.0304 4.67597 4.16991 
127 8.61475 5.85095 5.92935 
70 12.9144 4.44498 4.08498 
129 11.4186 5.88099 5.56298 
120 12.9154 4.19694 6.91455 
72 1.32011 7.32541 4.16558 
82 1.34144 9.90465 4.05909 
133 2.73487 8.47846 5.73014 
132 1.45599 10.1007 6.98982 
84 4.06125 9.95445 4.12177 
135 5.4472 8.97308 5.6783 
86 7.08588 9.93452 4.28433 
76 7.1194 7.22147 4.2173 
78 9.98047 7.32327 4.16711 
88 9.99434 9.99498 4.32257 
137 8.42814 8.66822 5.73887 
80 12.887 7.23984 4.24585 
90 12.7202 9.96008 4.37225 
139 11.4526 8.5719 5.82268 
1131 14.2067 8.58626 5.69195 
601 -0.027995 14.2257 5.63181 
92 1.47541 12.8884 4.12297 
143 2.84888 11.451 5.48854 
142 1.37285 12.9956 7.10923 
141 -0.0408073 11.4398 5.67159 
94 4.41269 12.8876 4.113 
145 5.59117 11.3054 5.55243 
146 6.88302 12.7736 6.98946 
96 7.07866 12.8463 4.09006 
144 4.07542 12.7609 7.01843 
98 10.077 12.8763 4.2484 
147 8.52365 11.3402 5.68252 
607 8.44158 14.2245 5.61028 
100 12.8415 12.788 4.21577 
149 11.3333 11.4783 5.71297 
1601 14.1953 14.2421 5.7898 
161 -0.0202454 2.75766 8.65558 
152 1.38725 1.51794 9.97727 
163 2.94998 2.62912 8.50918 
153 2.81776 -0.0170152 8.48659 
154 4.30962 1.48802 10.0185 
165 5.9642 2.80507 8.6137 
155 5.7684 0.0280679 8.56074 
106 7.24643 1.51698 7.11365 
156 7.26785 1.36554 10.0668 
158 10.1186 1.34611 9.96789 
167 8.75887 2.7911 8.60277 
157 8.66272 0.0301989 8.59848 
159 11.5943 0.0246595 8.47236 
160 12.9141 1.42101 10.0401 
169 11.3774 2.99157 8.49129 
112 1.35118 4.17219 7.27238 
162 1.30727 4.31738 10.0003 
173 2.61687 5.66478 8.52359 
114 4.12506 4.23164 7.27923 
164 4.20617 4.25458 9.86138 
175 5.67096 5.66099 8.5985 
174 4.13561 6.91013 9.89489 
166 7.09 4.33632 10.0349 
116 7.1901 4.20963 7.19827 
2001 8.81716 5.27614 8.8704 
168 10.025 4.18404 10.199 
177 7.92087 6.85981 7.93568 
178 9.99574 7.04134 10.1044 
1171 14.0619 5.69706 8.63217 
170 13.0378 4.10785 10.0838 
179 11.4869 5.69781 8.67117 
172 1.1225 7.14472 10.0118 
182 1.38725 9.71002 9.92959 
183 2.5883 8.2741 8.41044 
181 0.0135668 8.52748 8.46868 
134 3.9063 9.91892 7.19693 
176 6.99869 7.24816 10.1906 
184 4.05807 9.9626 9.96339 
185 5.70985 8.37232 8.47793 
136 6.95771 10.0859 7.1263 
186 6.9345 10.016 9.94738 
138 9.99907 10.0865 7.26034 
128 10.0466 7.42898 7.22947 
187 8.66018 8.80702 8.75472 
188 10.1044 10.0896 10.062 
140 12.7784 10.052 7.16607 
130 12.7251 7.1249 7.21644 
180 12.8613 7.20281 10.0411 
189 11.4036 8.59642 8.77613 
190 12.9646 10.008 10.0872 
1181 14.2121 8.54758 8.42176 
192 1.38586 12.9518 9.93702 
193 2.65366 11.4613 8.50504 
194 4.39456 12.9855 10.0637 
195 5.40394 11.267 8.45595 
196 7.01209 12.8166 9.91009 
655 5.58753 14.1783 8.42399 
148 9.94587 12.8078 7.12092 
197 8.423 11.4466 8.56731 
198 9.94443 12.9305 10.091 
657 8.49489 14.104 8.47953 
150 12.9539 12.7421 7.32047 
200 12.7616 12.9764 10.0221 
199 11.4736 11.403 8.71839 
203 2.79145 0.0120574 11.2565 
213 2.76289 2.87227 11.3777 
202 1.52774 1.39768 12.8529 
201 -0.00837907 0.0577028 11.4571 
255 5.74662 -0.00760601 14.2095 
204 4.27802 1.4335 12.7398 
215 5.7735 2.8804 11.355 
265 5.55081 2.85583 14.2598 
207 8.62497 0.0271636 11.4483 
206 7.18548 1.37992 12.8512 
217 8.5317 2.68548 11.4031 
208 10.0737 1.38906 12.8522 
209 11.3761 -0.0272833 11.3591 
219 11.4784 2.64602 11.3538 
210 12.9455 1.29438 12.8797 
223 2.87545 5.6815 11.5743 
212 1.24204 4.13414 13.0151 
222 1.38177 7.03542 12.9323 
225 5.58914 5.66235 11.38 
214 4.26159 4.20201 12.9571 
216 7.0491 4.17436 12.8719 
275 5.5294 5.69778 14.2069 
226 6.96189 6.92339 12.8252 
227 8.53669 5.49396 11.4723 
218 10.0555 4.20629 12.9931 
228 9.91965 7.02831 12.8352 
229 11.4118 5.58015 11.3649 
220 12.9807 4.23556 13.008 
230 12.7613 6.99813 12.8646 
231 -0.0149231 8.62052 11.4052 
233 2.67453 8.46166 11.4254 
232 1.37667 10.0621 12.867 
224 4.30565 7.16198 12.8803 
235 5.51585 8.63685 11.5345 
234 4.14616 9.89845 13.0011 
287 8.4579 8.4385 14.236 
236 7.11938 9.89494 12.7555 
238 10.0652 9.86545 12.8941 
237 8.61035 8.466 11.4441 
240 12.8674 10.0724 12.9615 
239 11.3806 8.53378 11.351 
289 11.5496 8.54402 14.1828 
1231 14.2137 8.385 11.6067 
703 2.86632 14.262 11.4488 
241 0.0343066 11.3527 11.245 
243 2.77631 11.3494 11.3189 
242 1.29829 12.949 12.7682 
293 2.80525 11.4692 14.242 
295 5.63981 11.3871 14.2108 
245 5.65366 11.3399 11.4392 
244 4.15013 12.8202 12.8466 
246 6.96343 12.7795 12.8105 
248 9.85737 12.8713 12.8061 
247 8.552 11.5219 11.4179 
297 8.4078 11.4107 14.182 
299 11.307 11.489 14.2133 
250 12.8475 12.8545 13.0281 
1241 14.1565 11.4296 11.5254 
249 11.5085 11.4547 11.4777 
252 1.3305 1.32077 15.6714 
313 2.8352 2.64627 17.0944 
263 2.73889 2.85576 14.3111 
254 4.24499 1.58956 15.7058 
315 5.73988 2.83376 17.0308 
256 7.09239 1.40813 15.7379 
305 5.72054 -0.000622351 17.1668 
267 8.54276 2.88116 14.4415 
258 9.8409 1.37048 15.8164 
317 8.6422 2.85674 17.142 
257 8.52511 0.0481643 14.2834 
260 12.8854 1.25847 15.7589 
319 11.396 2.81879 17.0503 
1251 14.176 -0.0211861 14.4007 
269 11.4802 2.75079 14.3543 
309 11.3252 -0.0128996 17.2589 
1311 14.0508 2.78119 17.1564 
262 1.39204 4.08662 15.8593 
323 2.7958 5.69701 17.2572 
272 1.30369 7.08037 15.7341 
321 0.0703368 5.45803 17.1996 
273 2.67908 5.69608 14.3142 
264 4.22281 4.3039 15.9383 
325 5.61391 5.71825 17.2766 
274 4.31461 7.07969 15.7146 
266 6.9949 4.33605 15.7117 
268 10.1236 4.25204 15.6945 
327 8.48482 5.61078 17.1741 
277 8.5487 5.74527 14.3711 
270 12.8352 4.18501 15.7822 
329 11.3478 5.76057 17.3063 
1321 14.1874 5.73227 17.1858 
279 11.4501 5.77925 14.429 
282 1.41076 9.99252 15.778 
333 2.8232 8.5338 17.1195 
283 2.73182 8.40875 14.2916 
276 7.00561 7.14112 15.6524 
284 4.19769 10.0151 15.7209 
335 5.7228 8.4272 17.1263 
285 5.63248 8.60038 14.3089 
278 10.0126 7.15355 15.7669 
286 7.24356 9.95717 15.6109 
288 9.92661 9.90023 15.7047 
337 8.30961 8.47795 17.207 
1331 14.1801 8.73972 17.158 
280 12.8403 7.19128 15.6851 
290 12.8534 10.0544 15.63 
339 11.4186 8.51682 17.0861 
1281 14.2701 8.54602 14.3008 
751 -0.0170957 14.1581 14.3471 
292 1.35905 12.7811 15.71 
343 2.876 11.3923 17.2817 
291 0.0168098 11.3483 14.3417 
294 4.20119 12.7829 15.7853 
345 5.73715 11.3053 17.2551 
296 7.06997 12.7375 15.7599 
298 9.78225 12.8188 15.6813 
347 8.42088 11.3608 17.1194 
807 8.49545 14.2669 17.001 
300 12.7318 12.8234 15.72 
349 11.4175 11.3584 17.1198 
1751 14.1903 14.2344 14.4351 
1341 14.2214 11.5502 17.1755 
302 1.57052 1.26788 18.5006 
363 2.90024 2.73294 20.0258 
361 -0.0381034 2.67879 20.0022 
304 4.19635 1.29516 18.5721 
365 5.75757 2.83742 19.9422 
354 4.28581 1.27059 21.381 
306 7.16603 1.3064 18.6192 
308 10.0267 1.50095 18.7426 
367 8.40643 2.8012 20.0572 
356 7.13016 1.30162 21.3467 
310 12.8322 1.45795 18.5659 
369 11.3863 2.90251 20.1164 
360 12.7404 1.38791 21.4164 
359 11.4842 -0.0291783 20.0001 
312 1.40194 4.09288 18.5497 
373 2.7402 5.51596 19.9899 
372 1.36393 7.05901 21.3454 
362 1.47671 4.03149 21.3739 
371 -0.0492678 5.52652 20.0377 
314 4.17966 4.20964 18.3788 
375 5.62707 5.70455 19.9412 
366 7.02371 4.39619 21.378 
316 7.10961 4.18367 18.5836 
364 4.30596 4.03788 21.2356 
374 4.20515 7.04586 21.3943 
326 7.11519 7.01535 18.4652 
318 10.0071 4.1159 18.5943 
377 8.48525 5.66497 19.9542 
328 9.83984 7.09728 18.5516 
320 12.8513 4.34121 18.6419 
379 11.4884 5.82909 19.8285 
322 1.43809 7.1706 18.7204 
332 1.32309 9.88757 18.6479 
383 2.79931 8.60338 20.1619 
324 4.19588 7.3067 18.6273 
334 4.2744 9.8997 18.6584 
385 5.75072 8.4871 20.0229 
336 7.0134 9.98367 18.7719 
384 4.45607 10.0323 21.4056 
338 9.90386 9.9502 18.4125 
387 8.55565 8.54738 20.0352 
388 9.95365 10.0554 21.266 
330 12.9086 7.27364 18.5762 
340 12.7919 10.1336 18.5113 
389 11.3356 8.45137 19.9735 
390 12.7748 10.1284 21.3183 
380 12.9616 7.22682 21.3529 
342 1.38067 12.7727 18.6411 
393 2.76068 11.333 20.0124 
391 -0.0133387 11.2869 20.0615 
392 1.352 12.9321 21.33 
344 4.21643 12.8472 18.5036 
395 5.66824 11.4755 20.0379 
346 7.19086 12.7423 18.5379 
348 9.913 12.8996 18.5091 
397 8.42086 11.405 20.0318 
398 9.86042 12.8416 21.3503 
857 8.52209 14.1966 19.9715 
1391 14.2575 11.487 19.9932 
350 12.6256 13.0764 18.4776 
399 11.3397 11.4338 19.8975 
400 12.6297 12.8275 21.3886 
401 0.0661252 0.000563592 22.986 
352 1.32715 1.53725 21.5797 
402 1.2662 1.30076 24.3899 
413 2.93253 2.73163 22.965 
404 4.26241 1.29119 24.1069 
415 5.73615 2.72221 22.8143 
406 7.104 1.25559 24.2335 
358 9.88566 1.44935 21.5309 
408 10.0433 1.40694 24.3363 
417 8.46895 2.95039 22.977 
407 8.61806 0.0345291 22.9786 
1401 14.0979 -0.00668154 22.9556 
409 11.5361 0.0102813 22.7694 
410 12.7225 1.4276 24.3026 
419 11.2922 2.86435 22.7785 
412 1.39474 4.17913 24.2929 
423 2.78657 5.63189 22.8626 
422 1.16452 7.0253 24.3442 
421 0.0298201 5.53947 23.0262 
414 4.1855 4.22611 24.4631 
425 5.66754 5.59474 22.7819 
416 6.92328 4.27985 24.3526 
424 4.00485 6.87992 24.4061 
376 7.16642 7.1097 21.4877 
368 9.80389 4.33294 21.511 
418 10.0145 4.27419 24.3701 
427 8.55125 5.66951 22.9194 
428 9.88243 7.03569 24.3843 
426 7.1441 7.06166 24.2118 
370 12.7666 4.19509 21.4601 
420 12.7867 4.22296 24.3666 
429 11.2846 5.79629 22.8903 
430 12.8678 6.92242 24.1882 
1421 14.1548 5.56722 22.7734 
431 0.000400107 8.54859 22.939 
382 1.35258 9.93383 21.4703 
432 1.36018 9.8966 24.2741 
433 2.83467 8.2714 22.8864 
434 4.18312 9.89665 24.2272 
435 5.59208 8.54114 22.8725 
436 7.03978 9.9303 24.39 
378 9.8917 7.11457 21.4553 
386 7.23087 9.98211 21.5243 
437 8.71305 8.60284 22.8816 
438 10.0436 9.91933 24.4006 
1431 14.2387 8.57097 22.9728 
439 11.3789 8.57378 22.8451 
440 12.818 9.96716 24.2637 
442 1.28872 12.9006 24.2084 
443 2.72257 11.5119 22.8667 
396 7.07383 12.8937 21.5067 
394 4.19486 12.9216 21.4615 
444 4.19815 12.8392 24.3268 
445 5.73013 11.4898 22.9296 
446 7.10057 12.7959 24.4454 
907 8.55287 14.0979 22.8561 
447 8.59432 11.4364 22.8019 
448 9.93685 12.8364 24.3177 
449 11.3006 11.4647 22.8855 
450 12.8827 12.9738 24.3007 
1441 14.2303 11.4276 22.9552 
461 0.0628858 2.79079 25.7667 
463 2.91881 2.74812 25.7705 
452 1.43641 1.41454 27.1021 
453 2.93648 0.0922207 25.6815 
15 5.4691 2.79571 -0.0704053 
455 5.74453 0.180092 25.7817 
465 5.60249 2.82371 25.7631 
454 4.34145 1.37011 27.2258 
456 7.14204 1.46603 27.1777 
467 8.44715 2.79059 25.5581 
458 9.99062 1.38645 27.1089 
457 8.70839 -0.00942527 25.7657 
17 8.46173 2.67417 -0.0788298 
1451 14.2339 0.100018 25.7327 
1461 14.2144 2.82019 25.6785 
469 11.3271 2.85663 25.7709 
460 12.9561 1.36627 27.1902 
473 2.79755 5.57971 25.841 
462 1.34391 4.17745 27.2178 
472 1.31527 7.08856 27.234 
23 2.71345 5.69755 -0.0665742 
25 5.67776 5.83609 -0.104067 
475 5.73224 5.77263 25.7148 
464 4.19586 4.34406 27.2106 
474 4.11363 7.05541 27.1403 
27 8.60655 5.65489 -0.171529 
466 7.14569 4.26965 27.0293 
477 8.52615 5.65748 25.6507 
468 9.82601 4.02136 27.2846 
478 9.90847 7.0317 27.0396 
29 11.3786 5.69107 -0.103363 
479 11.3742 5.71355 25.8625 
470 12.8525 4.05975 27.2564 
480 13.0147 7.08231 27.3012 
33 2.71418 8.49568 -0.0690124 
482 1.21679 10.0183 27.1384 
483 2.6545 8.27844 25.6464 
484 4.07978 9.97806 27.2046 
485 5.50845 8.45005 25.6611 
476 7.05522 7.20722 27.1466 
35 5.51858 8.49496 -0.182144 
486 7.12722 9.97267 27.0794 
487 8.51741 8.54882 25.8062 
488 9.94972 10.0052 27.2742 
490 12.8218 9.98103 27.3298 
489 11.5588 8.41594 25.7457 
39 11.3689 8.46387 -0.0579098 
493 2.76183 11.4568 25.8 
492 1.17032 12.8149 27.1963 
45 5.68533 11.4017 -0.100249 
494 4.17646 12.8999 27.2289 
496 7.07323 12.6531 27.0847 
955 5.68466 14.2424 25.7388 
495 5.59179 11.1788 25.7185 
505 5.70507 14.195 -0.0678974 
507 8.42352 14.1367 -0.173879 
497 8.62455 11.402 25.7845 
498 9.95003 12.7443 27.2073 
957 8.49066 14.2591 25.778 
500 12.9313 12.846 27.1854 
1491 14.2157 11.2253 25.8086 
959 11.5952 14.1133 25.7397 
509 11.3877 14.1923 -0.0651244 
499 11.5267 11.2752 25.77 
502 1.48449 15.765 1.21664 
563 2.83145 17.282 2.74614 
553 2.91467 14.3833 2.70798 
511 0.0120778 17.3116 0.0388518 
504 4.32262 15.6549 1.26189 
565 5.55758 17.2033 2.79451 
555 5.80678 14.3144 2.76059 
506 7.17249 15.7418 1.18951 
508 9.95337 15.6022 1.28091 
567 8.50371 17.1644 2.73653 
510 12.675 15.8541 1.48405 
569 11.1441 16.9949 2.81736 
1501 14.1695 14.401 -0.0238636 
512 1.53302 18.7783 1.35505 
573 2.81986 19.9953 2.65343 
514 4.32179 18.6809 1.17495 
575 5.61479 20.048 2.9169 
516 7.17846 18.5362 1.32202 
518 9.88533 18.5376 1.36045 
577 8.54553 20.0456 2.81918 
528 9.84064 21.3945 1.31942 
527 8.53288 20.0729 -0.032529 
520 12.7125 18.4639 1.39774 
579 11.4095 19.9339 2.60075 
530 12.8424 21.292 1.31344 
522 1.36096 21.4417 1.32016 
532 1.32026 24.2752 1.37688 
583 2.80154 22.8238 2.72072 
524 4.17271 21.648 1.32419 
534 4.26342 24.3555 1.43155 
585 5.78981 22.8101 2.91433 
536 7.08735 24.3017 1.42212 
535 5.81142 22.9972 -0.0382709 
526 7.20204 21.5758 1.34719 
538 9.96861 24.3602 1.52797 
587 8.49312 22.9731 2.85115 
537 8.55229 23.0105 0.00573121 
539 11.3987 22.9429 0.148778 
540 12.8335 24.3504 1.37167 
589 11.3371 22.8794 2.76102 
542 1.44385 27.1604 1.28987 
593 2.90287 25.8086 2.88813 
53 2.85342 -0.167947 2.83333 
1 0.0285669 -0.121508 0.178696 
541 -0.00841311 25.6213 -0.0163181 
544 4.36554 27.2815 1.40454 
595 5.79983 25.8287 2.84265 
546 7.09893 27.2525 1.3998 
55 5.73191 -0.210345 2.92723 
548 10.0203 27.295 1.33021 
597 8.53954 25.7807 2.83468 
547 8.5338 25.8802 0.0373176 
550 12.8378 27.1138 1.25518 
599 11.3156 25.8098 2.80691 
1591 14.2276 25.6867 2.84826 
552 1.52104 15.6219 4.12725 
613 2.83885 17.137 5.60423 
602 1.34099 15.7054 7.08994 
603 2.82448 14.2985 5.61515 
611 0.143217 16.9861 5.5516 
554 4.23601 15.6144 4.10684 
615 5.60518 17.1661 5.71201 
605 5.78261 14.4461 5.60229 
556 7.13645 15.9202 4.16221 
558 9.98578 15.6174 4.33269 
617 8.52194 17.1822 5.74392 
608 9.91629 15.6285 7.09974 
560 12.7339 15.7589 4.39993 
619 11.3532 17.1587 5.67057 
610 12.8385 15.7866 6.9779 
609 11.4151 14.3138 5.78692 
562 1.34032 18.5168 4.24683 
623 2.93607 19.9861 5.71873 
621 0.0140658 20.1437 5.49181 
572 1.39941 21.382 3.99185 
612 1.38983 18.5765 6.92696 
622 1.46703 21.3139 7.00396 
564 4.20033 18.473 4.14674 
625 5.69661 19.9787 5.71441 
566 7.06311 18.6116 4.2379 
574 4.22354 21.3572 4.22814 
614 4.24024 18.5738 6.94558 
568 9.97616 18.5376 4.11749 
627 8.55366 20.093 5.63968 
618 9.84034 18.6157 7.10712 
570 12.8206 18.6112 4.18386 
629 11.2994 19.8796 5.69106 
580 12.8753 21.2627 4.02788 
630 12.8204 21.3483 7.10084 
582 1.38624 24.2897 4.03077 
633 2.85392 22.8948 5.63283 
632 1.51434 24.2624 6.98178 
624 4.417 21.4941 7.02692 
584 4.39888 24.2777 4.18915 
635 5.81724 22.9915 5.58124 
586 7.10229 24.383 4.38414 
634 4.22693 24.3113 7.0233 
578 10.0796 21.4855 4.09141 
576 7.23405 21.4551 4.30254 
588 10.0525 24.4983 4.20609 
637 8.70745 22.8718 5.49417 
638 10.0043 24.4008 7.02325 
590 12.8845 24.2738 4.17906 
639 11.3485 22.8367 5.51404 
640 12.9574 24.2703 7.09352 
641 0.0234716 25.6028 5.63051 
592 1.26836 27.185 4.32841 
643 2.93767 25.6523 5.53116 
642 1.57048 27.0719 7.02323 
105 5.76232 -0.0617374 5.76701 
594 4.24495 27.101 4.34064 
645 5.76755 25.7878 5.69857 
644 4.31499 27.1266 7.05561 
596 7.2543 27.2707 4.21038 
598 9.99199 27.2272 4.31617 
647 8.50065 25.7653 5.77538 
600 12.8996 27.1575 4.28262 
649 11.4067 25.726 5.70253 
650 12.8449 27.0999 7.04472 
652 1.29151 15.6172 9.87154 
663 2.71494 17.2683 8.39673 
653 2.75622 14.2939 8.5527 
604 4.15968 15.6561 7.17771 
654 4.29284 15.7286 9.94387 
665 5.52582 17.1717 8.47073 
606 7.08843 15.594 7.1482 
656 6.91224 15.6761 9.84252 
658 9.79958 15.9454 9.96573 
667 8.40978 17.1624 8.52886 
1661 14.1832 17.0758 8.50599 
659 11.5753 14.312 8.49197 
660 12.7747 15.7911 9.96992 
669 11.2772 17.0939 8.46341 
662 1.17015 18.6767 9.88048 
673 2.96794 20.0815 8.48545 
672 1.23366 21.3931 9.93988 
664 4.05668 18.4954 9.88193 
675 5.64273 20.05 8.54855 
666 6.95104 18.5807 9.82138 
628 10.0789 21.2903 7.18411 
616 7.12023 18.5258 7.13945 
668 9.98978 18.6213 9.89498 
677 8.51803 20.0075 8.49453 
620 12.7324 18.4943 7.11652 
670 12.86 18.4373 9.88385 
679 11.4814 19.9745 8.57974 
680 12.9869 21.3137 9.99251 
682 1.33415 24.2293 9.94758 
683 2.82556 22.7324 8.4895 
681 0.0729529 22.8031 8.37026 
626 7.0743 21.7078 7.12411 
636 7.10611 24.4867 7.25777 
674 4.32753 21.4567 10.0399 
684 4.19786 24.3051 9.85491 
685 5.60548 22.9178 8.54043 
676 7.15234 21.4625 9.88641 
678 10.1605 21.506 9.80606 
686 7.14792 24.2287 9.8388 
687 8.58565 22.9459 8.472 
688 9.93362 24.3168 9.97847 
689 11.5501 22.9455 8.47382 
690 12.9941 24.2062 9.96178 
151 0.0437144 -0.115039 8.45151 
692 1.37677 27.2748 9.98761 
693 2.77046 25.6989 8.6359 
691 0.149717 25.6395 8.37584 
694 4.25011 27.3124 9.75845 
695 5.66684 25.8671 8.58998 
696 7.39922 27.2177 10.0304 
648 10.0444 27.2684 7.13766 
646 7.22793 27.326 7.12607 
697 8.68433 25.8543 8.66648 
698 10.1303 27.1422 9.86983 
699 11.5423 25.5559 8.43737 
700 12.7775 27.23 10.0987 
1691 14.1126 25.5678 8.50942 
711 -0.0197353 17.1501 11.4017 
763 2.92789 17.2727 14.1295 
753 2.83306 14.3896 14.2665 
702 1.37987 15.7339 12.88 
713 2.79316 17.1126 11.3979 
755 5.79497 14.3079 14.1414 
705 5.61214 14.2824 11.472 
704 4.49166 15.8331 12.922 
715 5.74105 17.1655 11.4004 
757 8.48898 14.2836 14.1368 
706 7.15824 15.9103 12.8392 
717 8.32801 17.2765 11.3683 
708 9.9329 15.8517 12.8247 
707 8.36014 14.397 11.2898 
769 11.332 17.1464 14.0997 
759 11.401 14.3225 14.1083 
1711 14.2633 17.1294 11.5232 
719 11.3573 17.2528 11.4947 
710 12.7959 15.715 12.82 
709 11.1581 14.3591 11.4673 
712 1.28931 18.4493 12.8698 
723 2.80667 19.9924 11.4601 
725 5.76231 20.0859 11.4099 
714 4.21422 18.6753 12.8306 
716 7.15211 18.6864 12.9512 
727 8.49437 19.9471 11.3247 
718 10.0833 18.7593 12.8311 
728 9.99971 21.365 12.8813 
730 12.9168 21.3905 12.8762 
729 11.5487 20.081 11.404 
720 12.8867 18.7077 12.9483 
731 0.0998712 22.9086 11.2608 
722 1.36914 21.4573 12.7832 
733 2.88024 22.7701 11.4507 
732 1.32929 24.3997 12.8257 
783 2.71521 22.99 14.2682 
785 5.74753 22.8371 14.2506 
724 4.28841 21.4489 12.9495 
726 6.98459 21.4434 12.8121 
735 5.73134 22.9036 11.4607 
734 4.24434 24.16 12.7533 
736 7.13107 24.2381 12.708 
737 8.5067 22.7347 11.4025 
738 9.97161 24.1835 12.8358 
787 8.55284 22.8675 14.091 
739 11.4781 22.9065 11.2078 
740 12.9461 24.2905 12.8594 
789 11.5505 22.9718 14.2657 
742 1.44167 27.0828 12.7093 
743 2.78618 25.7742 11.1794 
793 2.7981 25.6698 14.1171 
251 -0.00265611 -0.195501 14.1161 
253 2.93496 -0.0509867 14.1536 
795 5.71081 25.7697 14.1666 
205 5.71166 -0.20863 11.3249 
744 4.25453 27.1034 12.7344 
745 5.74288 25.6366 11.2446 
746 7.212 27.2346 12.7177 
747 8.55449 25.6523 11.1993 
748 9.98373 27.0117 12.7343 
797 8.40946 25.6733 14.151 
749 11.5002 25.6672 11.2825 
750 12.926 27.2896 12.9562 
259 11.2056 -0.113693 14.2706 
752 1.35749 15.5781 15.7452 
813 2.76027 17.0467 16.9673 
811 -0.00971406 17.0467 17.1344 
801 -0.0222099 14.2958 17.2526 
761 0.00380545 17.0632 14.3064 
803 2.86213 14.294 17.1007 
754 4.31736 15.8015 15.6293 
815 5.67082 17.1028 17.2183 
756 7.1066 15.678 15.6869 
805 5.68554 14.2801 17.0922 
765 5.82477 17.2245 14.4243 
758 9.92616 15.7298 15.5941 
817 8.71382 17.2039 17.2785 
767 8.57385 17.2473 14.3896 
760 12.738 15.7158 15.7128 
819 11.293 17.071 17.1352 
809 11.1368 14.3633 16.964 
1801 14.2332 14.3589 17.1732 
1761 14.2605 17.1492 14.3712 
762 1.3905 18.4211 15.6542 
823 2.73133 20.0041 17.2634 
772 1.24336 21.3692 15.7184 
773 2.86055 20.0236 14.3206 
764 4.2079 18.699 15.7445 
825 5.75137 19.9622 17.1817 
766 6.9746 18.6632 15.7812 
774 4.16349 21.4204 15.7635 
775 5.68832 20.0674 14.3263 
768 10.1223 18.6317 15.7919 
827 8.48854 20.0355 17.1397 
777 8.66255 19.9027 14.3974 
779 11.4904 20.0075 14.4464 
770 12.8331 18.3781 15.7021 
829 11.384 20.0774 17.098 
782 1.31123 24.3755 15.6778 
833 2.95892 22.9086 17.0781 
831 0.0329058 22.928 17.1066 
784 4.29678 24.3055 15.7463 
835 5.77024 22.9676 17.1107 
778 10.0705 21.6459 15.6433 
786 7.18985 24.2519 15.4766 
776 7.1292 21.5399 15.613 
788 9.96729 24.1458 15.7795 
837 8.65429 22.7362 17.2318 
780 12.8611 21.4854 15.7197 
790 12.8813 24.2839 15.6492 
839 11.4389 22.936 17.1775 
303 2.81067 -0.157991 17.1619 
792 1.49575 27.0468 15.6367 
843 2.82249 25.6038 17.0426 
301 -0.00834191 -0.169083 17.0812 
794 4.3581 27.2518 15.5755 
845 5.89074 25.6339 16.9214 
796 7.07951 27.146 15.5774 
798 9.79837 27.0878 15.7479 
847 8.58214 25.7158 17.0732 
307 8.4588 -0.158934 17.1774 
1791 14.245 25.663 14.3741 
800 12.7953 27.1899 15.5915 
849 11.2928 25.7286 17.0688 
799 11.3833 25.7232 14.2808 
802 1.48224 15.7044 18.6128 
863 2.82184 17.2354 19.9176 
861 0.0318185 17.3038 20.0817 
853 2.86227 14.2901 19.9238 
804 4.24404 15.7629 18.5714 
865 5.78323 17.1475 20.0129 
854 4.22862 15.7254 21.3281 
855 5.59493 14.2953 19.9084 
806 7.26196 15.5449 18.5724 
808 9.96307 15.6302 18.7399 
867 8.70564 17.2399 20.0214 
858 10.0588 15.5432 21.3825 
810 12.8121 15.7831 18.3847 
869 11.4626 17.1776 19.9864 
860 12.7889 15.7706 21.328 
859 11.3985 14.311 20.0435 
1851 14.2309 14.3658 20.1014 
1861 14.2612 17.1287 20.0056 
812 1.48203 18.4864 18.5417 
873 2.89167 20.0575 19.994 
872 1.32466 21.398 21.3342 
814 4.10462 18.5594 18.5272 
875 5.81707 20.0019 20.0539 
824 4.32569 21.4144 18.4489 
864 4.33156 18.6488 21.3709 
816 7.02141 18.5994 18.6046 
876 7.10697 21.3462 21.3679 
818 10.071 18.6412 18.5013 
877 8.47999 19.9505 19.9581 
868 10.051 18.5663 21.4346 
820 12.7118 18.6889 18.4121 
879 11.3212 20.0704 20.1041 
1871 14.0974 19.8464 19.9783 
822 1.36194 21.471 18.574 
832 1.42471 24.333 18.6373 
883 2.99516 22.9133 19.8533 
834 4.31237 24.3466 18.5096 
885 5.70066 22.9105 19.9467 
874 4.24969 21.5061 21.3729 
886 7.1023 24.1822 21.4075 
826 7.13208 21.4986 18.6228 
836 7.14771 24.2863 18.5755 
828 9.9018 21.4645 18.5681 
838 9.80394 24.3351 18.6048 
887 8.41908 22.8266 20.0078 
888 9.87616 24.2579 21.4287 
878 9.976 21.5135 21.4377 
830 12.7771 21.4646 18.5526 
840 12.736 24.5628 18.6249 
889 11.3633 22.8771 20.0386 
1881 14.2001 22.8363 20.0063 
842 1.58871 26.9659 18.5522 
893 2.9647 25.6271 20.1131 
891 -0.00751648 25.7283 20.0277 
351 0.199776 -0.127913 20.0956 
353 2.72429 -0.129196 20.004 
355 5.74533 -0.314299 19.9268 
844 4.19809 27.1093 18.5034 
895 5.77529 25.7033 19.9348 
894 4.28001 27.2006 21.424 
846 7.13216 27.0536 18.5249 
848 9.94499 27.246 18.6294 
897 8.42821 25.7122 20.0483 
357 8.59413 -0.202357 20.005 
898 10.0336 27.1831 21.4086 
1891 14.265 25.6478 19.8706 
850 12.9242 27.1232 18.3682 
899 11.2768 25.816 19.9578 
900 12.8807 27.2446 21.3435 
901 0.0161477 14.4042 22.8873 
852 1.27413 15.8366 21.5039 
902 1.47331 15.8738 24.2943 
913 2.84181 17.2421 22.8009 
903 2.86312 14.3024 22.8068 
905 5.51211 14.3612 22.9815 
904 4.22172 15.7643 24.432 
915 5.60023 17.3077 22.8342 
906 7.03982 15.6104 24.2914 
856 7.21289 15.6505 21.4634 
908 9.96356 15.451 24.2905 
917 8.54241 17.0705 22.8594 
909 11.5251 14.4521 22.9278 
1911 14.2232 17.2336 22.9464 
910 12.9563 15.8003 24.3614 
919 11.3586 17.1091 22.9394 
1901 14.219 14.3308 22.9414 
862 1.41308 18.63 21.5437 
912 1.42188 18.6359 24.3146 
923 2.90256 20.0757 22.8396 
921 0.073062 20.0924 22.8792 
914 4.30613 18.5526 24.4214 
925 5.70835 20.042 22.71 
866 7.17498 18.5146 21.4589 
916 7.14956 18.624 24.2945 
918 9.9599 18.6312 24.311 
927 8.54432 20.0931 22.8632 
880 12.8883 21.3486 21.5637 
870 12.809 18.6324 21.6634 
920 12.7107 18.6489 24.3738 
929 11.4779 20.1787 23.116 
931 -0.0343297 22.7863 22.8937 
882 1.43486 24.2039 21.4451 
922 1.49453 21.4954 24.2386 
932 1.48441 24.3452 24.2132 
933 3.02011 22.8359 22.758 
924 4.28389 21.5402 24.2281 
884 4.19273 24.3135 21.5141 
934 4.39267 24.3507 24.3121 
935 5.78533 22.8267 22.7067 
926 6.98966 21.4987 24.3964 
928 9.9619 21.5703 24.2595 
936 7.32721 24.3333 24.295 
937 8.52256 22.8541 22.8548 
938 9.87354 24.4404 24.2021 
1931 14.1925 22.9363 22.9505 
930 12.7173 21.6299 24.3974 
890 12.8402 24.3367 21.4597 
939 11.4031 22.9391 22.9859 
940 12.8786 24.3726 24.3431 
941 -0.0295142 25.6175 22.8965 
892 1.51026 26.9947 21.5394 
942 1.4779 27.2183 24.3758 
943 2.92782 25.7057 22.9456 
403 2.71344 -0.0713404 22.8931 
944 4.24877 27.1962 24.3509 
945 5.72937 25.6063 22.8053 
946 7.00863 27.1815 24.3291 
405 5.75197 -0.184156 22.6692 
896 7.17466 27.1434 21.4464 
947 8.52704 25.8807 22.8797 
948 10.022 27.2298 24.3945 
949 11.3098 25.8321 22.7704 
950 12.8714 27.0775 24.333 
1941 14.2019 25.753 22.8054 
961 0.0298219 17.2338 25.6237 
952 1.35808 15.7934 27.1374 
963 2.81727 17.2748 25.6028 
501 -0.00704919 14.4123 -0.113842 
503 2.78104 14.2901 -0.228485 
953 2.73797 14.2823 25.7282 
513 2.92988 17.1978 -0.0954628 
515 5.7857 17.2265 -0.07592 
954 4.38279 15.8599 27.0389 
965 5.83623 17.0519 25.6301 
517 8.68522 17.1321 -0.13388 
956 7.19631 15.6648 27.132 
958 10.0054 15.614 27.1201 
967 8.60106 17.2487 25.8068 
960 12.7531 15.7322 27.1502 
969 11.2523 17.2483 25.8288 
519 11.4125 17.1339 -0.145604 
1511 14.2488 17.0995 -0.134674 
971 0.0343287 20.1395 25.8303 
962 1.52502 18.6378 27.3356 
973 2.72137 20.1154 25.7756 
523 2.92733 20.1759 -0.144861 
964 4.2716 18.5987 27.1289 
975 5.63731 20.019 25.6805 
525 5.80201 20.1318 -0.108473 
966 7.11107 18.6569 27.0887 
968 9.9465 18.7893 27.1983 
977 8.57431 20.1812 25.735 
970 12.8222 18.7563 27.2752 
979 11.2888 20.1253 25.769 
1971 14.2197 20.0406 25.7435 
529 11.1414 20.122 -0.0993649 
981 0.0183737 22.9433 25.78 
972 1.40852 21.5985 27.2248 
983 2.97003 23.0058 25.7907 
982 1.4419 24.4383 27.0261 
533 2.91745 23.095 -0.101227 
531 0.0592312 22.6452 -0.0640766 
976 7.00538 21.4929 27.1186 
974 4.30905 21.5546 27.0819 
985 5.73871 22.8694 25.7272 
984 4.38599 24.5166 27.1955 
987 8.43971 22.9327 25.7623 
988 9.98755 24.4009 27.1872 
986 7.29456 24.4454 27.0434 
978 9.78769 21.6597 27.107 
980 12.6508 21.7125 27.2122 
989 11.2557 23.0408 25.6491 
990 12.8106 24.3468 27.1687 
543 2.8559 25.8097 -0.294501 
992 1.33405 27.429 27.0932 
993 2.95743 25.8717 25.812 
3 2.87575 -0.217307 -0.144426 
991 0.023417 25.7789 25.7027 
995 5.72845 25.8385 25.6844 
994 4.43536 27.3745 27.0163 
545 5.76699 25.9079 -0.151289 
997 8.68975 25.7663 25.7999 
996 7.36213 27.2676 27.082 
998 9.91614 27.1935 27.1442 
9 11.5464 -0.0996035 -0.192975 
549 11.3795 25.8299 -0.0588608 
1000 12.9499 27.103 27.1502 
459 11.5724 -0.109866 25.7801 
999 11.3947 25.6917 25.6336 
1002 15.7299 1.48779 1.31745 
1063 17.2091 2.97111 2.73841 
1004 18.5948 1.41973 1.53893 
1065 20.0779 2.81939 2.865 
1006 21.4155 1.33193 1.43478 
1015 20.1343 2.70179 -0.0449015 
1017 22.8778 2.48184 0.0296947 
1008 24.2974 1.31701 1.31343 
1067 22.7338 2.77086 2.86812 
1010 27.1593 1.29475 1.38495 
1069 25.7194 2.65746 2.86215 
1019 25.7241 2.77938 0.0668871 
1009 25.8064 0.10935 0.0014129 
1012 15.723 4.38548 1.24275 
1073 17.1432 5.73088 2.85019 
1021 14.327 5.6973 -0.0163054 
1014 18.6819 4.23288 1.22759 
1075 19.9201 5.70539 2.73256 
1016 21.3919 4.3769 1.47266 
1027 22.901 5.62851 0.01712 
1018 24.3223 4.1524 1.32723 
1077 22.8574 5.8252 2.94843 
1028 24.3297 7.09644 1.36507 
1029 25.7711 5.54753 0.165237 
1020 27.1947 4.0748 1.51934 
1079 25.6318 5.57784 2.94446 
1030 27.1065 7.10462 1.43872 
71 -0.126267 5.74018 2.77645 